<?xml version="1.0" encoding="UTF-8"?>

<!-- generated on 03/21/21 21:26:46 by Eclipse SUMO sumo Version 1.8.0
<configuration xmlns:xsi="http://www.w3.org/2001/XMLSchema-instance" xsi:noNamespaceSchemaLocation="http://sumo.dlr.de/xsd/sumoConfiguration.xsd">

    <input>
        <net-file value="data/cross.net.xml"/>
        <route-files value="data/cross.rou.xml"/>
        <additional-files value="data/cross.det.xml"/>
    </input>

    <output>
        <tripinfo-output value="tripinfo.xml"/>
    </output>

    <time>
        <begin value="0"/>
    </time>

    <processing>
        <time-to-teleport value="-1"/>
    </processing>

    <report>
        <verbose value="true"/>
        <no-step-log value="true"/>
    </report>

    <traci_server>
        <remote-port value="9961"/>
    </traci_server>

    <gui_only>
        <gui-settings-file value="data/cross.settings.xml"/>
        <quit-on-end value="true"/>
        <start value="true"/>
    </gui_only>

</configuration>
-->

<tripinfos xmlns:xsi="http://www.w3.org/2001/XMLSchema-instance" xsi:noNamespaceSchemaLocation="http://sumo.dlr.de/xsd/tripinfo_file.xsd">
    <tripinfo id="right_1" depart="2.00" departLane="51o_0" departPos="5.10" departSpeed="0.00" departDelay="0.00" arrival="99.00" arrivalLane="52i_0" arrivalPos="10.00" arrivalSpeed="10.66" duration="97.00" routeLength="1015.10" waitingTime="0.00" waitingCount="0" stopTime="0.00" timeLoss="14.07" rerouteNo="0" devices="tripinfo_right_1" vType="typeWE" speedFactor="0.94" vaporized=""/>
    <tripinfo id="right_6" depart="7.00" departLane="51o_0" departPos="5.10" departSpeed="0.00" departDelay="1.00" arrival="101.00" arrivalLane="52i_0" arrivalPos="10.00" arrivalSpeed="11.34" duration="94.00" routeLength="1015.10" waitingTime="0.00" waitingCount="0" stopTime="0.00" timeLoss="15.89" rerouteNo="0" devices="tripinfo_right_6" vType="typeWE" speedFactor="1.05" vaporized=""/>
    <tripinfo id="left_5" depart="5.00" departLane="52o_0" departPos="5.10" departSpeed="0.00" departDelay="0.00" arrival="108.00" arrivalLane="51i_0" arrivalPos="10.00" arrivalSpeed="9.60" duration="103.00" routeLength="1015.10" waitingTime="0.00" waitingCount="0" stopTime="0.00" timeLoss="13.79" rerouteNo="0" devices="tripinfo_left_5" vType="typeWE" speedFactor="0.83" vaporized=""/>
    <tripinfo id="down_0" depart="1.00" departLane="54o_0" departPos="5.10" departSpeed="0.00" departDelay="0.00" arrival="113.00" arrivalLane="53i_0" arrivalPos="10.00" arrivalSpeed="12.28" duration="112.00" routeLength="1015.10" waitingTime="10.00" waitingCount="1" stopTime="0.00" timeLoss="35.04" rerouteNo="0" devices="tripinfo_down_0" vType="typeNS" speedFactor="1.06" vaporized=""/>
    <tripinfo id="up_4" depart="4.00" departLane="53o_0" departPos="5.10" departSpeed="0.00" departDelay="0.00" arrival="115.00" arrivalLane="54i_0" arrivalPos="10.00" arrivalSpeed="11.76" duration="111.00" routeLength="1015.10" waitingTime="6.00" waitingCount="1" stopTime="0.00" timeLoss="32.51" rerouteNo="0" devices="tripinfo_up_4" vType="typeNS" speedFactor="1.03" vaporized=""/>
    <tripinfo id="down_2" depart="7.00" departLane="54o_0" departPos="5.10" departSpeed="0.00" departDelay="4.00" arrival="117.00" arrivalLane="53i_0" arrivalPos="10.00" arrivalSpeed="11.76" duration="110.00" routeLength="1015.10" waitingTime="5.00" waitingCount="1" stopTime="0.00" timeLoss="30.76" rerouteNo="0" devices="tripinfo_down_2" vType="typeNS" speedFactor="1.01" vaporized=""/>
    <tripinfo id="down_3" depart="12.00" departLane="54o_0" departPos="5.10" departSpeed="0.00" departDelay="8.00" arrival="119.00" arrivalLane="53i_0" arrivalPos="10.00" arrivalSpeed="12.10" duration="107.00" routeLength="1015.10" waitingTime="3.00" waitingCount="1" stopTime="0.00" timeLoss="30.40" rerouteNo="0" devices="tripinfo_down_3" vType="typeNS" speedFactor="1.08" vaporized=""/>
    <tripinfo id="up_16" depart="18.00" departLane="53o_0" departPos="5.10" departSpeed="0.00" departDelay="0.00" arrival="123.00" arrivalLane="54i_0" arrivalPos="10.00" arrivalSpeed="10.24" duration="105.00" routeLength="1015.10" waitingTime="0.00" waitingCount="0" stopTime="0.00" timeLoss="19.28" rerouteNo="0" devices="tripinfo_up_16" vType="typeNS" speedFactor="0.88" vaporized=""/>
    <tripinfo id="down_8" depart="17.00" departLane="54o_0" departPos="5.10" departSpeed="0.00" departDelay="11.00" arrival="125.00" arrivalLane="53i_0" arrivalPos="10.00" arrivalSpeed="11.09" duration="108.00" routeLength="1015.10" waitingTime="0.00" waitingCount="0" stopTime="0.00" timeLoss="25.58" rerouteNo="0" devices="tripinfo_down_8" vType="typeNS" speedFactor="0.94" vaporized=""/>
    <tripinfo id="up_20" depart="28.00" departLane="53o_0" departPos="5.10" departSpeed="0.00" departDelay="0.00" arrival="125.00" arrivalLane="54i_0" arrivalPos="10.00" arrivalSpeed="10.61" duration="97.00" routeLength="1015.10" waitingTime="0.00" waitingCount="0" stopTime="0.00" timeLoss="18.19" rerouteNo="0" devices="tripinfo_up_20" vType="typeNS" speedFactor="1.02" vaporized=""/>
    <tripinfo id="down_10" depart="22.00" departLane="54o_0" departPos="5.10" departSpeed="0.00" departDelay="13.00" arrival="127.00" arrivalLane="53i_0" arrivalPos="10.00" arrivalSpeed="11.52" duration="105.00" routeLength="1015.10" waitingTime="0.00" waitingCount="0" stopTime="0.00" timeLoss="28.92" rerouteNo="0" devices="tripinfo_down_10" vType="typeNS" speedFactor="1.09" vaporized=""/>
    <tripinfo id="down_15" depart="27.00" departLane="54o_0" departPos="5.10" departSpeed="0.00" departDelay="13.00" arrival="130.00" arrivalLane="53i_0" arrivalPos="10.00" arrivalSpeed="10.90" duration="103.00" routeLength="1015.10" waitingTime="0.00" waitingCount="0" stopTime="0.00" timeLoss="19.54" rerouteNo="0" devices="tripinfo_down_15" vType="typeNS" speedFactor="0.93" vaporized=""/>
    <tripinfo id="down_19" depart="32.00" departLane="54o_0" departPos="5.10" departSpeed="0.00" departDelay="10.00" arrival="131.00" arrivalLane="53i_0" arrivalPos="10.00" arrivalSpeed="11.09" duration="99.00" routeLength="1015.10" waitingTime="0.00" waitingCount="0" stopTime="0.00" timeLoss="25.69" rerouteNo="0" devices="tripinfo_down_19" vType="typeNS" speedFactor="1.16" vaporized=""/>
    <tripinfo id="down_22" depart="38.00" departLane="54o_0" departPos="5.10" departSpeed="0.00" departDelay="8.00" arrival="133.00" arrivalLane="53i_0" arrivalPos="10.00" arrivalSpeed="11.26" duration="95.00" routeLength="1015.10" waitingTime="0.00" waitingCount="0" stopTime="0.00" timeLoss="14.48" rerouteNo="0" devices="tripinfo_down_22" vType="typeNS" speedFactor="0.98" vaporized=""/>
    <tripinfo id="left_7" depart="10.00" departLane="52o_0" departPos="5.10" departSpeed="0.00" departDelay="4.00" arrival="259.00" arrivalLane="51i_0" arrivalPos="10.00" arrivalSpeed="10.32" duration="249.00" routeLength="1015.10" waitingTime="140.00" waitingCount="1" stopTime="0.00" timeLoss="163.73" rerouteNo="0" devices="tripinfo_left_7" vType="typeWE" speedFactor="0.89" vaporized=""/>
    <tripinfo id="right_9" depart="12.00" departLane="51o_0" departPos="5.10" departSpeed="0.00" departDelay="4.00" arrival="260.00" arrivalLane="52i_0" arrivalPos="10.00" arrivalSpeed="9.91" duration="248.00" routeLength="1015.10" waitingTime="137.00" waitingCount="1" stopTime="0.00" timeLoss="160.95" rerouteNo="0" devices="tripinfo_right_9" vType="typeWE" speedFactor="0.86" vaporized=""/>
    <tripinfo id="left_11" depart="15.00" departLane="52o_0" departPos="5.10" departSpeed="0.00" departDelay="5.00" arrival="276.00" arrivalLane="51i_0" arrivalPos="10.00" arrivalSpeed="11.63" duration="261.00" routeLength="1015.10" waitingTime="153.00" waitingCount="2" stopTime="0.00" timeLoss="182.44" rerouteNo="0" devices="tripinfo_left_11" vType="typeWE" speedFactor="1.03" vaporized=""/>
    <tripinfo id="right_12" depart="17.00" departLane="51o_0" departPos="5.10" departSpeed="0.00" departDelay="6.00" arrival="276.00" arrivalLane="52i_0" arrivalPos="10.00" arrivalSpeed="12.29" duration="259.00" routeLength="1015.10" waitingTime="151.00" waitingCount="2" stopTime="0.00" timeLoss="181.15" rerouteNo="0" devices="tripinfo_right_12" vType="typeWE" speedFactor="1.05" vaporized=""/>
    <tripinfo id="right_13" depart="22.00" departLane="51o_0" departPos="5.10" departSpeed="0.00" departDelay="10.00" arrival="277.00" arrivalLane="52i_0" arrivalPos="10.00" arrivalSpeed="12.00" duration="255.00" routeLength="1015.10" waitingTime="147.00" waitingCount="2" stopTime="0.00" timeLoss="180.53" rerouteNo="0" devices="tripinfo_right_13" vType="typeWE" speedFactor="1.12" vaporized=""/>
    <tripinfo id="left_17" depart="20.00" departLane="52o_0" departPos="5.10" departSpeed="0.00" departDelay="0.00" arrival="282.00" arrivalLane="51i_0" arrivalPos="10.00" arrivalSpeed="10.86" duration="262.00" routeLength="1015.10" waitingTime="148.00" waitingCount="2" stopTime="0.00" timeLoss="179.24" rerouteNo="0" devices="tripinfo_left_17" vType="typeWE" speedFactor="0.94" vaporized=""/>
    <tripinfo id="right_14" depart="27.00" departLane="51o_0" departPos="5.10" departSpeed="0.00" departDelay="13.00" arrival="331.00" arrivalLane="52i_0" arrivalPos="10.00" arrivalSpeed="10.83" duration="304.00" routeLength="1015.10" waitingTime="186.00" waitingCount="3" stopTime="0.00" timeLoss="224.27" rerouteNo="0" devices="tripinfo_right_14" vType="typeWE" speedFactor="0.99" vaporized=""/>
    <tripinfo id="left_23" depart="33.00" departLane="52o_0" departPos="5.10" departSpeed="0.00" departDelay="0.00" arrival="336.00" arrivalLane="51i_0" arrivalPos="10.00" arrivalSpeed="10.32" duration="303.00" routeLength="1015.10" waitingTime="179.00" waitingCount="3" stopTime="0.00" timeLoss="218.12" rerouteNo="0" devices="tripinfo_left_23" vType="typeWE" speedFactor="0.89" vaporized=""/>
    <tripinfo id="right_18" depart="32.00" departLane="51o_0" departPos="5.10" departSpeed="0.00" departDelay="11.00" arrival="371.00" arrivalLane="52i_0" arrivalPos="10.00" arrivalSpeed="10.79" duration="339.00" routeLength="1015.10" waitingTime="210.00" waitingCount="4" stopTime="0.00" timeLoss="256.19" rerouteNo="0" devices="tripinfo_right_18" vType="typeWE" speedFactor="0.94" vaporized=""/>
    <tripinfo id="left_26" depart="39.00" departLane="52o_0" departPos="5.10" departSpeed="0.00" departDelay="0.00" arrival="371.00" arrivalLane="51i_0" arrivalPos="10.00" arrivalSpeed="10.71" duration="332.00" routeLength="1015.10" waitingTime="204.00" waitingCount="4" stopTime="0.00" timeLoss="248.41" rerouteNo="0" devices="tripinfo_left_26" vType="typeWE" speedFactor="0.92" vaporized=""/>
    <tripinfo id="left_28" depart="44.00" departLane="52o_0" departPos="5.10" departSpeed="0.00" departDelay="4.00" arrival="373.00" arrivalLane="51i_0" arrivalPos="10.00" arrivalSpeed="11.18" duration="329.00" routeLength="1015.10" waitingTime="195.00" waitingCount="4" stopTime="0.00" timeLoss="254.44" rerouteNo="0" devices="tripinfo_left_28" vType="typeWE" speedFactor="1.13" vaporized=""/>
    <tripinfo id="right_21" depart="37.00" departLane="51o_0" departPos="5.10" departSpeed="0.00" departDelay="8.00" arrival="446.00" arrivalLane="52i_0" arrivalPos="10.00" arrivalSpeed="11.66" duration="409.00" routeLength="1015.10" waitingTime="275.00" waitingCount="6" stopTime="0.00" timeLoss="329.61" rerouteNo="0" devices="tripinfo_right_21" vType="typeWE" speedFactor="1.01" vaporized=""/>
    <tripinfo id="left_29" depart="49.00" departLane="52o_0" departPos="5.10" departSpeed="0.00" departDelay="7.00" arrival="447.00" arrivalLane="51i_0" arrivalPos="10.00" arrivalSpeed="10.57" duration="398.00" routeLength="1015.10" waitingTime="260.00" waitingCount="5" stopTime="0.00" timeLoss="315.41" rerouteNo="0" devices="tripinfo_left_29" vType="typeWE" speedFactor="0.93" vaporized=""/>
    <tripinfo id="left_31" depart="54.00" departLane="52o_0" departPos="5.10" departSpeed="0.00" departDelay="10.00" arrival="449.00" arrivalLane="51i_0" arrivalPos="10.00" arrivalSpeed="11.57" duration="395.00" routeLength="1015.10" waitingTime="256.00" waitingCount="5" stopTime="0.00" timeLoss="321.33" rerouteNo="0" devices="tripinfo_left_31" vType="typeWE" speedFactor="1.15" vaporized=""/>
    <tripinfo id="left_32" depart="59.00" departLane="52o_0" departPos="5.10" departSpeed="0.00" departDelay="14.00" arrival="512.00" arrivalLane="51i_0" arrivalPos="10.00" arrivalSpeed="11.57" duration="453.00" routeLength="1015.10" waitingTime="306.00" waitingCount="6" stopTime="0.00" timeLoss="373.68" rerouteNo="0" devices="tripinfo_left_32" vType="typeWE" speedFactor="1.01" vaporized=""/>
    <tripinfo id="right_24" depart="43.00" departLane="51o_0" departPos="5.10" departSpeed="0.00" departDelay="7.00" arrival="520.00" arrivalLane="52i_0" arrivalPos="10.00" arrivalSpeed="9.47" duration="477.00" routeLength="1015.10" waitingTime="330.00" waitingCount="6" stopTime="0.00" timeLoss="388.25" rerouteNo="0" devices="tripinfo_right_24" vType="typeWE" speedFactor="0.83" vaporized=""/>
    <tripinfo id="left_33" depart="65.00" departLane="52o_0" departPos="5.10" departSpeed="0.00" departDelay="19.00" arrival="679.00" arrivalLane="51i_0" arrivalPos="10.00" arrivalSpeed="13.00" duration="614.00" routeLength="1015.10" waitingTime="467.00" waitingCount="8" stopTime="0.00" timeLoss="541.20" rerouteNo="0" devices="tripinfo_left_33" vType="typeWE" speedFactor="1.17" vaporized=""/>
    <tripinfo id="right_25" depart="48.00" departLane="51o_0" departPos="5.10" departSpeed="0.00" departDelay="11.00" arrival="692.00" arrivalLane="52i_0" arrivalPos="10.00" arrivalSpeed="9.93" duration="644.00" routeLength="1015.10" waitingTime="489.00" waitingCount="7" stopTime="0.00" timeLoss="557.65" rerouteNo="0" devices="tripinfo_right_25" vType="typeWE" speedFactor="0.87" vaporized=""/>
    <tripinfo id="right_27" depart="53.00" departLane="51o_0" departPos="5.10" departSpeed="0.00" departDelay="13.00" arrival="741.00" arrivalLane="52i_0" arrivalPos="10.00" arrivalSpeed="10.98" duration="688.00" routeLength="1015.10" waitingTime="529.00" waitingCount="9" stopTime="0.00" timeLoss="606.27" rerouteNo="0" devices="tripinfo_right_27" vType="typeWE" speedFactor="0.95" vaporized=""/>
    <tripinfo id="right_30" depart="58.00" departLane="51o_0" departPos="5.10" departSpeed="0.00" departDelay="15.00" arrival="770.00" arrivalLane="52i_0" arrivalPos="10.00" arrivalSpeed="13.40" duration="712.00" routeLength="1015.10" waitingTime="553.00" waitingCount="11" stopTime="0.00" timeLoss="639.07" rerouteNo="0" devices="tripinfo_right_30" vType="typeWE" speedFactor="1.18" vaporized=""/>
</tripinfos>
